306
 energy: -589.302568954156 gnorm: 0.006943906348 xtb: 6.6.1 (8d0f1dd)
N            1.10666440020000       -0.00000000010000       -0.00000000030001
F           -1.03282176610000        0.00000000000000        0.00000000020000
H            1.48156262925603       -0.94080710949122        0.01488963078528
H            1.45914742215205        0.45871546074875       -0.82922312046201
H            1.47343792210128        0.49218297493365        0.80814918218440
H            0.00446531330000        0.00000000000000        0.00000000020000
O            1.54402202143987        2.26706954972154       -2.02453311811490
H            2.27451521497838        2.85849538375695       -2.27881734580323
H            1.32179769833194        2.55573243683719       -1.12773868116546
O            3.83655715604097       -1.55211515049061       -0.59842321174046
H            3.32305240013443       -1.39053091550459       -1.40510817878433
H            3.93067824308906       -2.51781311441544       -0.53372978711973
O            3.41355256995671        2.88763740979411       -0.07005967474154
H            3.08463600334082        2.36308264558546        0.67558843564515
H            3.90129234058219        3.63433426893909        0.32012423808303
O            4.74524252229311        5.06155771269198        1.07145794230559
H            4.95523465642327        4.44634128265368        1.79496390492992
H            3.86463195071661        5.39730965264482        1.29202521828260
O            4.80725063569021       -0.32897863871463        3.87222778315496
H            4.39654100023308       -1.09614931460438        4.31517862420494
H            5.76968012180569       -0.45967476883873        3.89475333909659
O           -2.09647657682181        0.59506747107243        2.32170371917246
H           -1.84720331027301       -0.18229071107028        2.85288054942750
H           -1.75054930768853        0.41821110394943        1.43196202471014
O            4.33055005948397        1.14863394796499       -1.98498627504813
H            3.88348496574738        1.68981616239415       -1.30925828329020
H            3.63047075791786        0.63561908945417       -2.42218641785775
O           -0.75821208091987       -2.14939190726253        1.66426746530433
H           -1.07568895572119       -1.53726894388823        0.98742292818090
H           -0.85974531026819       -3.03527516832439        1.28333220750250
O           -6.09608821031477       -0.57407536205522       -0.72749415123109
H           -6.78379679382074       -0.87979784112594       -1.34699520546360
H           -6.50103043214421        0.15293489448620       -0.22040528448939
O            4.96614810159839        2.83202514567192        2.72807375838144
H            4.71562620407386        2.07853729149832        2.17465178288684
H            5.92142054865020        2.73356992595936        2.86482430837346
O            1.16707161127364       -2.72201156118298       -0.94847066416216
H            0.20221761597480       -2.68220656268604       -1.06055002202847
H            1.51135540421858       -2.86631791086969       -1.85027568646926
O            1.92604437764448        2.07010823365104        2.24306670859173
H            2.54728952697614        1.78401537341156        2.93451668145003
H            1.06001827189314        1.98634019584066        2.67748129727505
O            6.31438336484323        1.49365306822029        0.09662072366427
H            5.58069653892911        0.97796166899919        0.48974230381663
H            5.88690276796408        2.18921320691018       -0.42545439264491
O            4.10266284637516        0.43183473242636        1.29795279104933
H            4.26991408977042       -0.03326846700246        2.13843544769806
H            3.92169651956049       -0.28367104710213        0.65964105385644
O            7.50394590999838       -0.24938051350989        3.19608894461406
H            7.15741918491845       -0.52380399070567        2.32503144535716
H            7.58084976455644        0.71836825407820        3.11328780529838
O            2.00150298472616        4.80989976485886        1.58999980325780
H            1.12825772063348        5.10987758892254        1.86681314303612
H            2.01929408215423        3.85903671904105        1.80449267195903
O           -3.41766878912114       -3.58682957960264        2.30467920083249
H           -3.30636632916416       -3.44427735069560        3.26415354812347
H           -2.64983215766932       -4.09520502843009        2.01642602039028
O            1.18042306527661       -0.05817193697986        4.96817863467319
H            1.80485365370640        0.65701175864170        5.16718754525465
H            1.42385790537790       -0.32574763222318        4.05576363265702
O           -3.37537563543890        0.33577435806104       -1.50106832081156
H           -2.76429762448037       -0.04708434075582       -0.85500950341051
H           -4.24845133609175       -0.02971614239039       -1.28295335148333
O           -5.68992602815046        3.50663635142902        1.78629790313232
H           -5.50374212457523        4.06564058038859        1.01444981745106
H           -4.86192728451607        3.49473218404518        2.29666884844905
O           -4.71502016350316        0.76184146494929        1.57225561261386
H           -4.93368796610153        1.36906093161307        0.84222996656002
H           -3.78895610943117        0.96723758958694        1.79490666336078
O           -2.80853390863344        2.51670882282650        0.26150653330522
H           -2.92144946983816        3.46104212029838        0.07286591335656
H           -3.14322306830876        2.03580560441363       -0.51160742983968
O           -5.41421044012473        2.26591431059824       -0.82698103484854
H           -4.79858478721894        2.91850273656171       -1.19129085388312
H           -5.63438712730924        1.70205920934821       -1.59450172212015
O           -0.71914365798319        2.46645262129253       -4.08986353171274
H           -1.66095048087807        2.33633791588312       -4.26194395557189
H           -0.65104626436175        3.11061236600856       -3.36262113949441
O            6.39934488059373       -1.36808356163921        0.99114870056599
H            5.60234379474132       -1.82132156031748        1.30547322680775
H            6.28813618680987       -1.28894209720595        0.02919842276832
O            1.67871114062394       -3.46248073724197       -3.54920260619226
H            0.86752287929147       -3.99577939151898       -3.57501159668312
H            1.64472547693002       -2.87938247098119       -4.32221603785794
O            1.73321505071488       -1.06410676517773        2.50566452015780
H            2.54333106732142       -1.59995128883548        2.44655820323505
H            1.00877024749752       -1.67764659590567        2.30708740018340
O           -7.37906323736028        1.35250821064812        0.93676904455054
H           -6.85888942337463        2.14872080206806        1.13709179197842
H           -7.37686247615015        0.82789993723170        1.75281173298635
O           -0.69559314589627        4.39270997109475        2.45202569107976
H           -1.62480432122760        4.19597053405213        2.68407196910113
H           -0.22224406641740        3.87676195114448        3.12206724051914
O            4.22041707493962       -4.30851816883542       -0.21323265122168
H            5.18062119296473       -4.31756568237475       -0.04987267023146
H            4.15108783783006       -4.52090791274047       -1.17580801417912
O            7.68087021210696        2.38884239010382        2.32870590141479
H            8.64426527641015        2.41336461047790        2.21060063799030
H            7.33983108957484        2.19136776935998        1.43635062871336
O           -0.80593288265325        4.11105813433470       -1.83013048103171
H            0.05067210096082        4.59405695802506       -1.81078397319183
H           -0.64471423665893        3.43731738202461       -1.13996767408204
O           -1.31973544755034       -1.19702914181326        4.28036869950915
H           -0.50961949294512       -0.88684428271737        4.71601271008371
H           -1.03066996215703       -1.90879663176360        3.68327884703485
O            6.29146304741202       -0.81025459076118       -1.75586508655086
H            5.58842272412284       -0.14729726012959       -1.63873778088439
H            6.87487165197399       -0.44208291916031       -2.44298726821227
O            8.65873452079860       -2.26225492565703       -1.26523886636896
H            7.84102947189028       -2.59668841415075       -0.86341852729446
H            8.50393716863180       -2.36009474660008       -2.22877248407892
O           -3.42593387248820       -1.48519942557255        0.56434960502391
H           -3.44750069270845       -2.19855620938614        1.23579708565279
H           -4.04778599366089       -0.80620154034424        0.87888168378705
O           -5.02489526782289       -1.41780979019655        3.49525752769219
H           -4.62296863358754       -0.69680357225425        2.99540654053691
H           -5.17337507190567       -2.10823296355902        2.82405788603861
O           -6.00667586408804       -2.57689501646807        1.21122284551882
H           -6.91486153971540       -2.90989930711121        1.21379472940401
H           -6.00966896930923       -1.88612100349167        0.52311905913946
O           -7.75316762283874       -0.73535855863186        2.79889399862141
H           -6.89785104239102       -1.12196202175432        3.04110117877583
H           -8.18655771743181       -1.41043488865201        2.25163519444878
O           -2.77966900917033       -5.18773224662961       -1.11860097728917
H           -3.10699482875984       -5.42480257313444       -1.99187351657404
H           -3.59233647093657       -5.15481854415481       -0.56006690512465
O           -0.32443476082156        2.09831639404679        3.86931080387534
H           -0.08889482416915        1.52151506878762        4.60836961161607
H           -1.04894115101611        1.64036990476703        3.41182168160987
O           -3.40963167603141        1.52299247196628       -4.00325899126156
H           -4.37877767131057        1.52127593980402       -4.07611456498064
H           -3.25529516875496        1.00126819467152       -3.19508330024101
O           -8.75041885237667       -2.61330294909968        0.85622876518606
H           -9.68443622890207       -2.89372838865939        0.88771845472070
H           -8.81228616026556       -1.80895778101624        0.30283633789859
O           -3.13306284627486        3.22231090975802        2.97233731446807
H           -3.02181266658392        2.64622608758773        3.75306414530528
H           -2.88834978411166        2.65868158667474        2.22403195480143
O           -1.59656484022415       -2.63824439234177       -1.24367164954542
H           -2.06891709146582       -1.91308665292720       -0.81546826294035
H           -2.18511144514791       -3.41019474452527       -1.17235094116579
O            1.66722205435623       -4.77674720872152        0.75586564786475
H            2.53585886890062       -5.10708306816068        0.48353079393715
H            1.54347370167297       -3.99530937181949        0.17510556270452
O            4.06631329727640       -2.63572491760079        2.10116276445834
H            3.98542420904894       -3.14714677063533        2.91221719657354
H            3.84627428676444       -3.24234856322216        1.37907200244527
O            2.32880946442942       -0.67947280523567       -2.79394574597681
H            2.50535064335305       -1.11962821552199       -3.63667066879505
H            1.36778807662996       -0.54225035965245       -2.77493067343186
O            6.07549669521168        4.01374094727944       -1.20203104283821
H            5.70547925245732        4.58897031065269       -0.51373305034927
H            7.00949704801784        3.90213719095129       -0.94939621991492
O            4.09574472455932       -4.72098854236008       -2.86805903187808
H            3.19389655669616       -4.48931675381284       -3.14119291045168
H            4.62366763495208       -4.01181547428363       -3.26785255208477
O            3.26300335225589        1.78324748308976        4.67422322796229
H            3.89758592467405        1.06473242985777        4.48762982240462
H            3.74172094277461        2.57839191226539        4.40840372243129
O           -1.08330902039097       -4.92001940051436        1.12837084808821
H           -0.13882117535868       -5.09355682405489        0.97049369131180
H           -1.54787550396030       -5.22609801128797        0.33508574083145
O           -8.49380948443108        2.04837220510825       -2.39516440001832
H           -8.31886824312145        2.99879535801348       -2.39877939886586
H           -8.82179080835954        1.90225769452399       -1.49170334688492
O            8.72118745281877        0.41992416222885       -0.83812225388289
H            8.73378188159141       -0.55545821778933       -0.97711092566403
H            7.81029422528397        0.57986337062690       -0.52940732945854
O           -4.56270988292450       -2.90206799045186       -1.56697511013651
H           -5.38854717888740       -3.33136262719334       -1.28765033232964
H           -4.28593843780307       -2.36635603818867       -0.80330080096131
O           10.14470548865228        1.62583347313568        1.31026244210833
H           10.34754091369773        1.00683688994176        2.04579357330088
H            9.63226098145379        1.07491788361562        0.69604315349582
O           -3.53542212926879        3.76464515987629       -2.31391818752592
H           -2.60772670210666        4.03122601647058       -2.21453671933795
H           -3.53449752152245        3.10707539383410       -3.02968483986908
O           -3.28059578853696       -3.03848195373082        5.03541869636179
H           -2.60028426345801       -2.34606444531799        5.03754881757068
H           -4.10606375016139       -2.55501046603390        4.89522083551882
O           -5.00790958709185       -5.12922204810199        0.40573519918388
H           -5.81905971421409       -4.89722227877155       -0.06600766401108
H           -4.88975414999108       -4.43127168120671        1.06767185654395
O           -0.08093680753977        2.60024314932566        0.33742515550654
H           -0.25239467594010        3.22823013129967        1.06054336219450
H           -0.82654131967529        1.98484813984206        0.36342605857631
O            1.60076104809836        5.15329583015116       -1.22846782421205
H            2.35253890530983        4.92801045160791       -1.79359243803698
H            1.86340952406106        4.90032751309927       -0.32770459736119
O           -0.38705255548780        0.15487660860601       -2.61762112658831
H           -0.37466553319164        1.02730203492273       -3.05762830395768
H           -0.81243655037628        0.28085524588348       -1.76086434439837
O            3.66697695480550        3.97114020988621       -2.82336457743222
H            4.06133389177500        3.63283987018349       -3.63537267103070
H            4.37162842002275        3.90133389120132       -2.16358973252794
O           -5.48073119030540       -1.52554197725456       -3.83916806974773
H           -5.08472054883416       -1.92935617713841       -3.04879876473041
H           -4.74335402376681       -1.41409008066867       -4.47473301102769
O            1.85637134032898       -3.78930191706181        3.35977072587008
H            1.80920476627061       -4.18339875190931        2.47072461216963
H            0.96143934406593       -3.87349605240227        3.71914970589761
O           -1.08890637959309       -2.06978022494409       -4.00626601920674
H           -0.94894170499769       -1.33853451250266       -3.37585219464778
H           -1.11776904848495       -2.86281472332325       -3.45102376390348
O           -5.99870676251219        1.09160448388859       -3.22484829198568
H           -5.92440112196715        0.12577359497878       -3.35850148605143
H           -6.94362160962801        1.28350822997477       -3.10256795884015
O           -7.52609372920588        4.10821813736537       -0.80273268780613
H           -7.01333970163053        4.90870651244122       -0.63827417451367
H           -6.87319611660587        3.39161029044525       -0.71737383534884
O            8.68666785207479        3.28911172806929       -0.48506082917260
H            9.28947459371591        3.32570317552552        0.26629258815688
H            8.77915794866226        2.38864585444063       -0.82030513464196
O            5.96285626068305        2.55422490225208       -3.65221131455973
H            6.30136907091799        3.27471302541624       -3.10528873950631
H            5.42133397106409        2.02659057377700       -3.02885702123254
O           -9.34657052403239       -0.19775376504985       -0.24689695526346
H          -10.18955268265632       -0.09929385529399        0.24922265301134
H           -8.77800404862392        0.50645879036810        0.10756537195040
O            7.91896376232446        0.55290032747654       -3.57590235948810
H            7.33257513547837        1.30796921506871       -3.75498047946156
H            8.44574222326364        0.79505418765113       -2.80239852045083
O            1.78954481538057        1.43477124671433       -4.70996020894668
H            1.78670764343654        1.40022154294493       -3.74196624406695
H            1.01208513525861        1.97589840409769       -4.90725635959032
O           10.30902215944436       -0.46673338738460        3.00919661815592
H           10.41018129508543       -1.17657041074967        2.35500843562610
H            9.38457087485063       -0.52055074607258        3.29746408113232
O            5.05829986280047       -2.24297368251336       -3.74031805801603
H            5.30149571656553       -1.83989288205795       -2.88803086849115
H            4.79612896678415       -1.48979556684256       -4.29243853918221
O           -7.85055561537265        3.13590354210490        3.56157229281517
H           -7.24079523837471        2.59257947946744        4.08132229733939
H           -7.27700218512789        3.55102187609750        2.90132579000797
O           -9.75211938652581        1.40445765280624        2.59015515011889
H           -9.25052476497465        2.13897870034486        2.99524936812634
H           -9.22498112084123        0.62568595409080        2.80806887996418
O           -5.77529026822465        1.29264962617608        4.12251271912079
H           -6.18011112271185        0.42064607138747        4.17705677926294
H           -5.50572873636967        1.38679244701540        3.19407178775116
O           -3.26719326007278       -1.03876071883402       -5.34608977473113
H           -2.45843753322266       -1.43249638173948       -4.97103084284899
H           -3.18288822046638       -0.09029885321322       -5.17630724380602
O           -7.90320973491500       -1.67768866351448       -2.60571795034682
H           -7.31691601986755       -1.67383397821688       -3.37619858268610
H           -8.73610806992606       -1.25371206865137       -2.87824445163887
O           -3.04912796798865        1.23321979208206        4.94549521596317
H           -4.01672910491012        1.18050514584995        4.90326482444000
H           -2.71751972685752        0.35333532914962        4.73707267628699
O            7.91856348803201       -2.29688443131505       -3.91633684600315
H            6.96478324763412       -2.46224443012893       -3.98771504932538
H            8.02636939208828       -1.36259681843850       -4.13790195177038
O            4.39876455187171        0.30721975983735       -4.78572011258769
H            5.02517935636786        1.03768617855328       -4.78390894393086
H            3.53072569799239        0.70012336907155       -4.95360335729341
O            1.28881793931115       -1.30763376718340       -5.33741444571002
H            1.41706580445257       -0.34585023645643       -5.32692166325092
H            0.36161363133733       -1.45431322574893       -5.09892092272071
O          -10.18674105900935       -0.08416383530808       -2.87807144893392
H           -9.73513638082608        0.71934911892271       -3.17170990696277
H           -9.95501084396092       -0.13652845442645       -1.93203591140256
O           10.48965512200196       -2.32755643361171        0.86816696255764
H            9.88513174631462       -2.39352907510735        0.11101119037302
H           11.21368625350603       -1.77837101450152        0.52726762826396
O            6.98829829675914       -4.02851750360763        0.17568161184716
H            7.64143415598021       -4.70310692064529       -0.01988367257639
H            7.28764661900658       -3.63652904859811        1.02387520199359
O            8.27579864006147       -3.17379160971037        2.45149756647283
H            7.93973165048509       -2.30387130414322        2.69336112533223
H            9.16284955149303       -3.01720456295982        2.09719646258110
O           11.66628471723721       -0.10308537767389       -0.36555332850222
H           10.88798233562576        0.05376438630133       -0.90923983904257
H           11.65935408464586        0.60933920353348        0.28629536505794
O           -3.27645085540394       -4.03240340550478       -3.80565403868680
H           -3.32667195217618       -3.39242800481952       -4.52217441315599
H           -3.65502044199892       -3.58828894046638       -3.03053585330945
O           -9.76770210095193        2.63919609477585        0.02622702808634
H           -9.10691673338731        3.34781848590608       -0.01389842939699
H           -9.68532537630091        2.25781964987210        0.91674127274379
O           -4.98586302534708        5.26524298462490       -0.37524107777637
H           -4.19500208637866        5.63424245178256        0.04388356404427
H           -4.66250651179334        4.95595197334715       -1.23236485688457
O            3.20353051275457       -2.13723431575429        5.18891141210173
H            2.50141008175655       -1.50323255359843        5.39286530046473
H            2.77182649240959       -2.81292754403141        4.64458749749257
O           -7.19154194062694       -3.93462824377554       -1.11058001491405
H           -7.46930355272385       -3.33803493988762       -1.82403461062995
H           -7.82609447948306       -3.74201559846949       -0.40384504295670
O           -0.70037377853623       -4.84151429824994       -3.08024195298474
H           -0.93426427901551       -4.90044823726439       -2.14865819227897
H           -1.55027857349422       -4.78447329973920       -3.54503991542653
O           -2.26045615366143        5.35448798027626        0.21696597465233
H           -1.66542667771936        5.32109915472786        0.97587627298161
H           -1.69068075042782        5.24125298344573       -0.55929649804469
O          -11.71592748822988        0.09257121744278        1.07172068121034
H          -12.05351591090109        0.64620269642420        0.34086426426906
H          -11.37612654024508        0.70471157126624        1.74013717360860
O          -12.01396569952955        1.50655389500807       -1.26023933661917
H          -11.66533357655628        0.98083323594882       -1.99272403707129
H          -11.29895913970000        2.10806256837321       -1.00347172039469
O          -11.42660183767240       -2.57458019732452        0.31906762152868
H          -11.72445890755744       -1.78845245664141        0.80308782301450
H          -11.47030455660517       -2.32298763931535       -0.60590089279658
O           -0.88706688499583       -4.07609490145340        3.90135098092698
H           -1.62256026109990       -4.23411163535179        4.50327646619674
H           -1.05266147116105       -4.59046587019406        3.10201104325958
