306
 energy: -589.317954597647 gnorm: 0.008463492924 xtb: 6.6.1 (8d0f1dd)
N            1.80666440020007       -0.00000000010011       -0.00000000029930
F           -1.73282176609994       -0.00000000000002        0.00000000019999
H            2.13110486046620       -0.96308334617121       -0.02548835701713
H            2.11706989544749        0.49877326825951       -0.82716120281000
H            2.12388235394905        0.46628096020795        0.84940244627103
H            0.70446531330000       -0.00000000000001        0.00000000020000
O            1.63791751360504        2.16594235014567       -1.97437788174820
H            2.29024892154802        2.84831623932520       -2.21104662063142
H            1.21266752428466        2.50312269320001       -1.17327370331759
O            3.92551588088173       -1.65141354015327       -0.67430843724191
H            3.54357808777970       -1.51933062018695       -1.55561750575971
H            4.03129129731140       -2.61682143961861       -0.57442294343898
O            3.46163211503758        2.88608073881624       -0.04188485049750
H            3.07055617446016        2.45073679088627        0.72962544941641
H            3.91927095101299        3.67333841252293        0.30644195653460
O            4.71152176789606        5.07653927857292        1.08466743992132
H            4.92571330126674        4.46250810876323        1.80760866067324
H            3.83055396973159        5.40903779043834        1.30874448481383
O            4.81099394153339       -0.32315408935268        3.85592622555543
H            4.39359073484402       -1.09165616654311        4.29347895885981
H            5.77303497309928       -0.45636347899234        3.88858536357332
O           -2.13277965995901        0.61269083905724        2.36552309668296
H           -1.89323511137843       -0.20014583634978        2.83862419563687
H           -1.92528622134963        0.41471038193058        1.41481910795116
O            4.37071124189123        1.13633023678319       -1.95378866104139
H            3.91033296747831        1.72357772127729       -1.32758797038161
H            3.68238483060746        0.68226743387440       -2.46789951851385
O           -0.75479346886329       -2.01262231448075        1.57604199205577
H           -1.18476905640188       -1.39434697654161        0.95691580332557
H           -0.94614880306596       -2.89778510864893        1.23172213408540
O           -6.17893885312286       -0.61457471790907       -0.70744862693596
H           -6.87120391155990       -0.90308497761382       -1.32850691444972
H           -6.55311458557748        0.13506546954804       -0.21216371278281
O            4.96520377016615        2.82466785601414        2.72216403259082
H            4.72922384189172        2.07037691205692        2.16539530984357
H            5.92116176090945        2.74047419016717        2.86471354845643
O            1.15635965823059       -2.58627398500203       -0.90006338339067
H            0.18393774215706       -2.56006851249708       -0.97567288423203
H            1.45900340359665       -2.80659429115534       -1.80292925915205
O            1.97528562270884        1.99791567981759        2.23290212640098
H            2.53993683716526        1.82658759833947        3.01103366977500
H            1.07780207385211        1.90277363533053        2.60196649320933
O            6.33452118635529        1.52383217490507        0.10004436328930
H            5.60217396982572        1.00971967356275        0.49302244760967
H            5.90672554592832        2.22011134095879       -0.42127542655631
O            4.16844680347063        0.34806573413559        1.27265426279735
H            4.31893084011171       -0.05230953034188        2.15214221170430
H            4.18807501353192       -0.40865214141367        0.66030562471129
O            7.50634032454081       -0.24731334276049        3.18743580739465
H            7.16849235092230       -0.51773084791306        2.31297609345015
H            7.58729579434596        0.72083171390404        3.11105808407942
O            1.97372377369999        4.77388034934686        1.61373920593422
H            1.08259500282044        5.06630305464572        1.84279529991660
H            1.98657515549703        3.82876178025537        1.84509273334219
O           -3.44846569178835       -3.66570360117578        2.36871363578993
H           -3.31694327154065       -3.50263628241157        3.32090661179949
H           -2.65062487858818       -4.10409351835432        2.04932112484975
O            1.21131836186308       -0.09288830652028        4.98932953746690
H            1.78935573690201        0.66014954906282        5.18335036787433
H            1.42198188421786       -0.31631553963779        4.05967241889300
O           -3.56465990923696        0.36396679037020       -1.60936464758149
H           -2.87962107386849        0.08786796127906       -0.95733668038721
H           -4.38258924175185       -0.07360549910096       -1.33029191241074
O           -5.69797410715802        3.49521002470443        1.80395121030893
H           -5.49911759549177        4.03833961389270        1.02454596658274
H           -4.87283542921898        3.47762822582134        2.31843577573749
O           -4.72016050356431        0.73900042906217        1.55463506718359
H           -4.92549979496399        1.33311736282511        0.81068334422480
H           -3.79427162207020        0.93943702620400        1.78654040976861
O           -2.83636639301565        2.56586806447171        0.25256578025450
H           -3.03438829512479        3.47680709111132       -0.00177657752855
H           -3.13205985312557        1.99666846611081       -0.47517353891497
O           -5.46249504156518        2.27520989943238       -0.82551357318589
H           -4.80650712178898        2.89269868920993       -1.17840281264828
H           -5.65408602330100        1.69539137779987       -1.58875427186680
O           -0.72303011638287        2.29374862198625       -3.99042317965610
H           -1.65703256506052        2.19457461965686       -4.22169825788395
H           -0.67476882235929        3.00134941996349       -3.32623977527433
O            6.40401466741783       -1.37777047705107        0.97873806755340
H            5.65300045684802       -1.90536283268740        1.28987146279136
H            6.31402822265241       -1.33365706501500        0.01262636121164
O            1.67217748122165       -3.46788526000403       -3.47224995873841
H            0.85570372782291       -3.99623097570171       -3.50326052272411
H            1.64660055960154       -2.89232156904648       -4.25070181751988
O            1.71621066283905       -1.05511985611839        2.47391998742247
H            2.46968801168686       -1.66781620790923        2.51120387144461
H            0.94411968342346       -1.60839845463803        2.26338606222867
O           -7.40021980935736        1.35664344592890        0.95555357613735
H           -6.84961097864997        2.13597900419201        1.14116276779443
H           -7.37050100482045        0.81903219780678        1.76225498679797
O           -0.70268785834117        4.29716168880157        2.36508440447381
H           -1.63999075664395        4.13932485448918        2.59975848710458
H           -0.25549706946476        3.79536191208376        3.06372200623491
O            4.23289167221854       -4.34684756693250       -0.21802132560704
H            5.19139537534289       -4.36414303578740       -0.04521819030073
H            4.16636119888674       -4.56897588157303       -1.18032237152558
O            7.68260809509250        2.40069816317155        2.34596140198826
H            8.64749636635241        2.42180346325516        2.23682742343331
H            7.35130548651281        2.21496801510355        1.44764400043857
O           -0.81162873912173        4.02298689206475       -1.77623716856182
H            0.04366525130487        4.50382170622173       -1.73753936803388
H           -0.70007455261541        3.34509973123990       -1.08329495641997
O           -1.30357588897208       -1.21808116138361        4.29332612571067
H           -0.49387451157286       -0.91873785171725        4.73473683372956
H           -1.01826287090019       -1.90460870410714        3.66750282468292
O            6.33004791565540       -0.80525378284876       -1.76366344349855
H            5.64014962861642       -0.13075491846574       -1.63975687798455
H            6.91256859284264       -0.44509801636969       -2.45728472239328
O            8.65880643460675       -2.27289788121546       -1.27007264775832
H            7.84341823431267       -2.61108786368103       -0.86773920496300
H            8.50262879507497       -2.37037042658217       -2.23286852317645
O           -3.57691501541138       -1.64446435088112        0.53435998711159
H           -3.61387221390923       -2.29766124048944        1.25746109650759
H           -4.03437907337883       -0.84793806984479        0.84763734229089
O           -4.99028188699687       -1.41263215544598        3.50715978888512
H           -4.58713019550858       -0.70064787737851        2.99551565295070
H           -5.16693379905203       -2.10364828488006        2.84364153859276
O           -6.05147815317208       -2.60479179558279        1.26802347105640
H           -6.95949140359669       -2.93508931532275        1.24077566148024
H           -6.02148526467367       -1.92996003002346        0.56484305194462
O           -7.74790514940507       -0.74405409957679        2.81060591933533
H           -6.88151109176422       -1.12554544647133        3.01759384611945
H           -8.18835364901561       -1.41480674278977        2.26388063357193
O           -2.77748073837421       -5.14303980889084       -1.10858184482878
H           -3.10871701891570       -5.38642354616663       -1.97818300466649
H           -3.59034901239435       -5.11023183518702       -0.54955589322105
O           -0.29309169469927        2.02404017396626        3.79475219002406
H           -0.17589858933567        1.49854937049610        4.59503658935241
H           -1.01567071395672        1.58069029621083        3.30696100905711
O           -3.44194380324478        1.52470410545291       -4.04975073230856
H           -4.40432355160156        1.56606401777305       -4.16982308419674
H           -3.36720179273004        1.00812086905923       -3.22005220056666
O           -8.77657551414680       -2.61174951954229        0.86289706908212
H           -9.71282034634915       -2.88513434600906        0.88912583084607
H           -8.82601997190782       -1.80553715845278        0.31163181157886
O           -3.13763867916164        3.21569941667308        2.98135984988302
H           -3.02181147468792        2.63896492861841        3.76167768760325
H           -2.92066944426102        2.64263340015016        2.23062291332477
O           -1.58944735126067       -2.55523005326804       -1.23784351184595
H           -2.00354661844363       -1.78460329234145       -0.81839255366167
H           -2.22399434710725       -3.28224587180898       -1.13359410060462
O            1.66042038411169       -4.71669258702959        0.73590623478911
H            2.51598255687010       -5.05902167137075        0.43963386683726
H            1.52565720390723       -3.92594783335744        0.17187511515195
O            4.06572506618786       -2.64912204766299        2.08034236083601
H            3.98976838353079       -3.13279922202240        2.90920828287147
H            3.81802091710852       -3.27607808873069        1.38551288701660
O            2.36278653224220       -0.67457392239160       -2.78702430124556
H            2.47578118240085       -1.08575525054499       -3.65647911905154
H            1.40102824496117       -0.57043499448591       -2.68761343481730
O            6.07900517585506        4.03505467038726       -1.19234740363946
H            5.71996304035729        4.61205182361475       -0.50063044610445
H            7.01605130037512        3.91753096379362       -0.95295761574163
O            4.09683829097894       -4.72831511143337       -2.86045949237963
H            3.18762062307898       -4.50020645338865       -3.11466291647073
H            4.61201742419721       -4.01005764868406       -3.25991725889094
O            3.26809292633389        1.78890538336557        4.66761914098345
H            3.89295230531339        1.06140414238741        4.48291557746092
H            3.77304035194213        2.58095882946515        4.44655586528187
O           -1.09355584676192       -4.86582074806114        1.13363557686815
H           -0.15157013376619       -5.03489387600374        0.96481875145557
H           -1.56487562298853       -5.16886254465457        0.34246331242065
O           -8.51138280647350        2.05735692262566       -2.37608166921103
H           -8.32635673977999        3.00585033879209       -2.37611873320858
H           -8.83342305656261        1.90949814857276       -1.47074883173467
O            8.72438910779421        0.41340195564313       -0.82870506174058
H            8.72809315595919       -0.56185012937742       -0.96699749481146
H            7.81496155156906        0.58473213347668       -0.52247965291620
O           -4.60492282243375       -2.93150243072903       -1.63036205728533
H           -5.43147569898959       -3.34514868424701       -1.33328674040953
H           -4.30336519266287       -2.40305121519224       -0.86485262086154
O           10.13329722087727        1.62880340685709        1.32651263787487
H           10.35195452505042        1.01112765838309        2.05815913755208
H            9.62335567682972        1.07158573133307        0.71632148972135
O           -3.54944613959385        3.75096561444609       -2.33229016992124
H           -2.61693945548947        3.99342871102446       -2.23033003614768
H           -3.55921311214685        3.06327225944036       -3.02070839398865
O           -3.26802233849246       -3.03527015678674        5.07652908750159
H           -2.59575751297988       -2.33494220856947        5.05181409565244
H           -4.09677888562564       -2.56497987985790        4.91125881184607
O           -5.01333110471716       -5.12439179343571        0.40004327019333
H           -5.82032074930526       -4.87570753578698       -0.07049195981477
H           -4.89921336327928       -4.44699673300665        1.08364959052098
O           -0.10887571383501        2.31499548240213        0.31743069522600
H           -0.33948821502147        2.96163127279983        1.00705039602889
H           -0.87042969947693        1.71028436879921        0.28394505556309
O            1.60009054006101        5.08046960016206       -1.20385485092697
H            2.36854764806343        4.91072813184026       -1.76521281197507
H            1.87574660489482        4.86934662180250       -0.29670134168901
O           -0.29757838746956        0.07322745601022       -2.25919105278217
H           -0.41015328234230        0.90709317725358       -2.74980489156031
H           -0.89146538311207        0.11085699873675       -1.48460997893076
O            3.67464939893809        3.95483904443044       -2.80770767570890
H            4.04777029069776        3.62328088306623       -3.63212692373004
H            4.40504832845777        3.91644800814697       -2.17384683179665
O           -5.50653781041116       -1.50736076028606       -3.84163592838206
H           -5.12521195737836       -1.91042734663147       -3.04122990760036
H           -4.75637291196004       -1.41183985422231       -4.46197116700648
O            1.84388883210990       -3.76727533922935        3.35208022174048
H            1.78839607283686       -4.16685125322120        2.46589238256564
H            0.95136788212710       -3.85791257417811        3.71885381841634
O           -1.00825173206377       -1.98938983115823       -3.94617315171962
H           -0.88798787259254       -1.32639285743254       -3.23996347889832
H           -1.14424423647980       -2.81966064056496       -3.46613723320010
O           -6.02213043140237        1.12143368241612       -3.25208619448247
H           -5.92784229510838        0.15504004357140       -3.36469191697321
H           -6.96624265635614        1.29474783117592       -3.10566685332859
O           -7.54082642192462        4.12750345022167       -0.79004451911144
H           -7.02104290735722        4.91945698311817       -0.60854495853941
H           -6.89056713116259        3.40477034435040       -0.72259881122151
O            8.69076295333058        3.28449995140842       -0.50061533487297
H            9.29096581536282        3.33106692714698        0.25215253751230
H            8.79024657121072        2.38199391961568       -0.82842331337075
O            5.98226211758367        2.54983365416259       -3.64161333716102
H            6.31632467825529        3.27491169259950       -3.09886378412941
H            5.44610240232549        2.01783867779340       -3.01731709368818
O           -9.36031110444338       -0.19200794476464       -0.24230720323731
H          -10.20416832687116       -0.09414344896459        0.25152264653547
H           -8.78874000910187        0.50559971125549        0.12042878135568
O            7.93898770271924        0.54485336117842       -3.57833058449572
H            7.35474306316372        1.30197228976192       -3.75587757052281
H            8.46939094415314        0.78626496000909       -2.80714149870257
O            1.79748845520630        1.43704965149857       -4.71704279037014
H            1.76931619136204        1.38284446854016       -3.74997381300446
H            0.98080918885555        1.91552440894048       -4.91969173569943
O           10.31666778908628       -0.47187563529519        3.01735692446310
H           10.42162001790642       -1.18108092524109        2.36341888343894
H            9.39402309064335       -0.53081060158737        3.30819343649612
O            5.02882489921230       -2.22866941329702       -3.70892350570516
H            5.33271559896971       -1.81885174656094       -2.87974264443001
H            4.76800846752669       -1.47815148352603       -4.26502329020037
O           -7.87538026928213        3.13597956375415        3.55690746128955
H           -7.25594354720214        2.58071753843277        4.05263859901485
H           -7.31436146850222        3.55421595515209        2.88808924777374
O           -9.76596476764891        1.38611968809343        2.59403803934160
H           -9.26356353642408        2.12538643367092        2.99012595146427
H           -9.22629544343216        0.61322340076421        2.80188657458670
O           -5.78742718043415        1.28930836393890        4.10339208960498
H           -6.18578412497124        0.41485122921514        4.16902164499266
H           -5.51434380411001        1.37030405051659        3.17446901976881
O           -3.23695677972922       -1.07801156263691       -5.30760360549710
H           -2.42183718246514       -1.42968263060179       -4.90459194950904
H           -3.19978533968968       -0.12540854046936       -5.14000648398310
O           -7.94220243866636       -1.70926237311927       -2.62387641604091
H           -7.33043239490214       -1.66931003895338       -3.37351235087178
H           -8.76271877559024       -1.26476222833308       -2.89940693196206
O           -3.06672309679833        1.25375897433883        4.98958402759164
H           -4.03249616489483        1.20037976372676        4.91192829948510
H           -2.72747067155773        0.39569036042266        4.71345192800712
O            7.89200321384636       -2.31452515575285       -3.91737346007921
H            6.93896383067593       -2.47803893762168       -3.99335043497104
H            8.00860450464415       -1.38600986167368       -4.15646697997340
O            4.40652650603865        0.33412282949999       -4.75109425924446
H            5.03564040805120        1.05854862642277       -4.82245747769516
H            3.53827226405131        0.71116803936772       -4.95349623133556
O            1.34077215178768       -1.32283394807155       -5.32054831179003
H            1.44924197854043       -0.35931815965511       -5.34472993205184
H            0.41422794302251       -1.47357456384714       -5.07618787734834
O          -10.19611103860589       -0.07164235809127       -2.87648897617006
H           -9.73351024882418        0.73026190021659       -3.15795763523216
H           -9.96626251604451       -0.13753309110474       -1.93087515977522
O           10.49048418690646       -2.31197132183766        0.85892325140700
H            9.89397502600144       -2.39644473410357        0.09748788459143
H           11.20595543645049       -1.75114020027906        0.51823720678903
O            6.98023781178262       -4.02987389155796        0.17878547869088
H            7.61805212096672       -4.71652029134338       -0.02539630124476
H            7.29356618532651       -3.64927885768610        1.02772429372608
O            8.27446964788477       -3.16573285243249        2.43903080938903
H            7.94647550548429       -2.30159712925198        2.71071273324000
H            9.15800986847873       -3.00353637146137        2.07803869522635
O           11.65147142281957       -0.07843647810798       -0.37349125485522
H           10.85951198380867        0.08467894844850       -0.89559425698269
H           11.66983422528762        0.63425572412520        0.27686627228107
O           -3.24445372991254       -3.97525468994855       -3.83838423865243
H           -3.40018835541138       -3.35063357012606       -4.55327947878651
H           -3.66367951340734       -3.58318441536006       -3.05410536431452
O           -9.77711369178252        2.65412373891913        0.04199186556940
H           -9.10712185860486        3.35437382892430       -0.00153282051356
H           -9.68289629429951        2.26028227572983        0.92566863744518
O           -4.97454308303695        5.24235063242674       -0.36462739754347
H           -4.17870915369579        5.62318196757686        0.03462689186683
H           -4.67353934096614        4.94233995715151       -1.23282996956564
O            3.22745759913567       -2.13737626877796        5.15804397936101
H            2.52994950686276       -1.50349641722628        5.38299461899080
H            2.77355859083828       -2.82682452763176        4.65014673925940
O           -7.22219940922026       -3.94712251446430       -1.10425661861260
H           -7.49683584803853       -3.35367650599152       -1.82152435577112
H           -7.84368057042402       -3.73304461397748       -0.39207673773397
O           -0.70900670428735       -4.83181489465387       -3.06805529988867
H           -0.98143458050655       -4.82915109141629       -2.14423760421345
H           -1.54060010682289       -4.76838399980576       -3.56353677705808
O           -2.24557122058007        5.44144965368872        0.19557164356256
H           -1.66616764353254        5.31843610704342        0.95679998794817
H           -1.69569849751141        5.24679095089171       -0.57700023292784
O          -11.73805297066077        0.09693330138574        1.06651494969637
H          -12.06439686091722        0.65697330411671        0.33545210421200
H          -11.38708741832512        0.70235069292630        1.73563355040208
O          -12.01401930361076        1.52337190315841       -1.26352471169742
H          -11.66278056892351        0.99654121669505       -1.99426250232150
H          -11.29650465603377        2.11930643337792       -1.00036834763019
O          -11.45351931516491       -2.57872995910917        0.33648302447826
H          -11.73535706248815       -1.77771476060877        0.80606061430740
H          -11.49476036582407       -2.34467199888906       -0.59307534447365
O           -0.88013819743880       -4.07171243768040        3.89425785110232
H           -1.61646304697982       -4.20506191364535        4.50223406204424
H           -1.06118554306072       -4.59479477942819        3.10327169640766
