7
 energy: -4.175218520002 gnorm: 0.000004963676 xtb: 6.6.1 (8d0f1dd)
C           -0.00002007470243        0.00002007962477        0.00000000396423
H            0.54903152853471        0.79224900864507        0.49193939019502
H            0.67703621408827       -0.80592554961641       -0.25126681174549
H           -0.77105923922864       -0.37007155005563        0.66303806146511
H           -0.45508842869191        0.38382801140220       -0.90371064387887
O           -0.60500000000000        2.00000000000000        0.00000000000000
O            0.60500000000000        2.00000000000000        0.00000000000000
