306
 energy: -589.314889693522 gnorm: 0.007649784710 xtb: 6.6.1 (8d0f1dd)
N            2.10666440020007       -0.00000000010009       -0.00000000029924
F           -2.03282176609994       -0.00000000000002        0.00000000019999
H            2.42626236253816       -0.96389470527401       -0.03461446457844
H            2.41947208733712        0.50657904850529       -0.81866762883020
H            2.41508687884434        0.45147664624547        0.85856252163842
H            1.00446531330000       -0.00000000000001        0.00000000020000
O            1.67638671529530        2.12153878041972       -1.97137833342432
H            2.28006494881581        2.86519051926097       -2.13399667089104
H            1.16735545430122        2.37316621664629       -1.18844092122701
O            4.04804470979701       -1.76268401530101       -0.72509183017828
H            3.67467299331921       -1.62617818225783       -1.60990408587678
H            4.13298069333999       -2.72879978702481       -0.62154286338706
O            3.51391623213646        2.87790023933437       -0.03136724473417
H            3.06204050821066        2.51067687372873        0.74292698293120
H            3.95803641882903        3.68448439593723        0.28989517689203
O            4.70223924211466        5.09256379261436        1.09675380291281
H            4.91699162832869        4.47507365788941        1.81680206002008
H            3.81854472284205        5.41804604842699        1.32039725240360
O            4.84985908641594       -0.32273925594725        3.93451691141093
H            4.42794781354926       -1.10186114742079        4.34991548534351
H            5.81083789946097       -0.46164318474263        3.95925462179520
O           -2.22052380038787        0.55006159893556        2.41672320726400
H           -1.93463604584592       -0.26373442220655        2.86177344415749
H           -2.07110341954801        0.36982910051053        1.45416749713393
O            4.42728271387111        1.14559762134954       -1.95735515447834
H            3.96306014685737        1.76891066175863       -1.37127595290345
H            3.74971403777367        0.69359338188076       -2.48781697582616
O           -0.84050911187215       -1.94400697892624        1.56424760590326
H           -1.30533985529159       -1.36597909903650        0.93292462221691
H           -1.00721650293797       -2.84635145856342        1.25041898285751
O           -6.31371267541441       -0.69288111832284       -0.68632434186451
H           -7.00818025911548       -0.96739396228368       -1.31118736677124
H           -6.66459080236539        0.07284178858574       -0.20064642246666
O            4.96196513399244        2.83223140384258        2.72609819885338
H            4.72594592903434        2.08138751197870        2.16448353361251
H            5.91771552860380        2.74578011999784        2.86924481070150
O            1.13527325273929       -2.49974847293596       -0.84640066921482
H            0.16443398421385       -2.45375471124876       -0.93010796758508
H            1.43671692270288       -2.74992343229661       -1.74161671173060
O            2.06232822413242        1.99318921329053        2.23305597465961
H            2.56620228179845        1.86428666727690        3.06222525484621
H            1.15080915620558        1.78933985597926        2.50530710091294
O            6.40732007232032        1.54841065484694        0.07143227927824
H            5.68672021179077        1.02947399888395        0.48137982301439
H            5.96574053164537        2.25265406290738       -0.42661857572240
O            4.35892990457684        0.27596116738141        1.32569996720390
H            4.47817867683199       -0.08626012710466        2.22886579561426
H            4.39957650187484       -0.50626961291961        0.75203662485992
O            7.50939507573876       -0.24522441737572        3.15078797064646
H            7.17573797866935       -0.53177114060637        2.28036297410596
H            7.58291175827247        0.72293416125702        3.06491250715940
O            1.96967744808724        4.76545967818667        1.64262565472418
H            1.05368513191784        5.01947544032744        1.81440828731859
H            2.01463792107844        3.83252364927381        1.91504721518339
O           -3.51775996426561       -3.74846673843302        2.45750009845905
H           -3.36271680921040       -3.54585686843168        3.39864725591496
H           -2.69398677319802       -4.10949566473845        2.10861338468515
O            1.25304596947526       -0.13427741054847        5.01292071635309
H            1.79608766055256        0.64609680670980        5.19667251547534
H            1.42323866351322       -0.32409080850683        4.06824962615582
O           -3.77044459329704        0.18766937399512       -1.77588287458431
H           -3.10738154185676        0.01666152090757       -1.07169264705255
H           -4.60259146326865       -0.17367575810587       -1.43411191169392
O           -5.71758683520207        3.46846920328178        1.80342149377739
H           -5.50101696057672        4.01093206693416        1.02876443199014
H           -4.90526869299492        3.45113390076280        2.33773240611604
O           -4.77544049602538        0.68103160441546        1.47369530580608
H           -5.01150005411560        1.25476804399295        0.72289654247969
H           -3.86192877449529        0.92363478317331        1.69553884087669
O           -2.84788259289022        2.58774321384391        0.25176025447564
H           -3.12497311726523        3.48299038289956        0.01890418055351
H           -3.14622151680067        2.00253996364229       -0.45643821586204
O           -5.48890995315060        2.24114223598746       -0.85250351909335
H           -4.84021436984220        2.86081425755442       -1.21601790632896
H           -5.72065856363486        1.69182024189308       -1.62785790957017
O           -0.74646438774534        2.03971501774591       -3.85617078276907
H           -1.67484301184868        1.98079239571941       -4.12252576260768
H           -0.68580946231358        2.78704405574865       -3.23851094919649
O            6.50144777303167       -1.46725394522548        0.92947244464137
H            5.75648301267137       -2.01583108994814        1.21591282044659
H            6.39974981814402       -1.37119623822379       -0.03218778889590
O            1.68020915239657       -3.47292217802169       -3.38041203055355
H            0.84927073765598       -3.97921170274331       -3.42574814749000
H            1.69534982383076       -2.91963173546783       -4.17415190203563
O            1.65043076224927       -1.01977211530957        2.44183618210336
H            2.34552914691507       -1.69346983777570        2.51237596034258
H            0.84321563920544       -1.50713473733479        2.19780092604649
O           -7.44334232197989        1.35800870300900        0.96581691940092
H           -6.88447486334285        2.13241799343261        1.14730836516515
H           -7.40328502065232        0.81711711350249        1.77022016386716
O           -0.71759398125450        4.16460714481631        2.25972411264024
H           -1.65318849083137        4.04750626430877        2.52070674797351
H           -0.27141137345579        3.64275425673981        2.94529739515267
O            4.25382699068243       -4.46021130750217       -0.18644333658029
H            5.20838480366244       -4.50066912395941       -0.00160963251888
H            4.19503558761383       -4.66232643015946       -1.15277483450494
O            7.67973016552851        2.42182813356308        2.35935298110969
H            8.64643801355527        2.44191573480741        2.27266073789688
H            7.37005300199020        2.24416810932232        1.45136100880797
O           -0.83894462826516        3.86425574077633       -1.71701760475296
H            0.02143916474250        4.33377230413389       -1.66885074098237
H           -0.76490533793041        3.19430990955643       -1.01281796869518
O           -1.27530548600980       -1.21697720644891        4.34332181719101
H           -0.46591950573383       -0.90957538533472        4.78047306658320
H           -0.99129558023082       -1.91935456313389        3.73614339849524
O            6.39932776850264       -0.76860240688194       -1.77940010421007
H            5.71325869799262       -0.09103710423993       -1.65138709188515
H            6.97389477371644       -0.41663750509688       -2.48373506030566
O            8.66960439846204       -2.31192846167278       -1.27953991612656
H            7.86662957098693       -2.65868482726787       -0.86123520725123
H            8.49303311661557       -2.39572128727471       -2.23960839641823
O           -3.67616957107464       -1.81138957435543        0.53687720628859
H           -3.74029486356965       -2.41931708641762        1.29592294281500
H           -4.04568984139501       -0.95965666522313        0.81334754741819
O           -4.95674237273443       -1.40080874209993        3.52447968963728
H           -4.52912720908441       -0.72567363190994        2.98388717587058
H           -5.16726027739331       -2.11080738108127        2.89296799171643
O           -6.13349855081479       -2.65034337737964        1.35357613522032
H           -7.03882726152943       -2.98668231737155        1.33151981557619
H           -6.09738778164508       -2.01080518441821        0.61917141501992
O           -7.75669185345434       -0.74379408597338        2.82499055811021
H           -6.87969054087850       -1.11991046664215        2.99036195431479
H           -8.21136597217680       -1.41280702262718        2.28831906348464
O           -2.81555934720984       -5.09064259780934       -1.11256050646687
H           -3.14679828777550       -5.30581072591789       -1.98953068877410
H           -3.63049426175133       -5.06574751012740       -0.55631936828556
O           -0.27028853959852        1.91431436572461        3.72475284222208
H           -0.22469210274530        1.48270227571293        4.58466582735315
H           -1.01614763278782        1.47852425585699        3.26369659831489
O           -3.52517546592137        1.51858916577170       -4.10914009879491
H           -4.46974516924738        1.61458887495680       -4.30218599587072
H           -3.54659875684129        0.96976004276386       -3.29419934039554
O           -8.83747849982573       -2.60313853167521        0.88506879670494
H           -9.77666836472439       -2.86853448828167        0.90156074790162
H           -8.87042681765999       -1.79673267325459        0.33386631178632
O           -3.16668610727706        3.17596047444563        2.98948527295044
H           -3.05324111476753        2.61364843122194        3.78150520511823
H           -2.96876316480638        2.58049903269460        2.25196306616776
O           -1.62832579698332       -2.52523916298142       -1.22949775378413
H           -2.08846545534933       -1.77095509623139       -0.82780889809537
H           -2.23731739089613       -3.27451155366262       -1.12376078106879
O            1.63360946525271       -4.65977621878813        0.73454844147930
H            2.48110356027548       -5.00999166676611        0.42327608496375
H            1.49785369468251       -3.85536343394052        0.18967225081731
O            4.06401535026540       -2.61549445297945        2.03041394513710
H            3.98998030717292       -3.07074473965865        2.87532959607702
H            3.81745229570373       -3.26735498470882        1.35877545516107
O            2.42799435790377       -0.67534805688372       -2.76891888794051
H            2.44259408569472       -1.07552680575571       -3.65314203139353
H            1.48465887236541       -0.59041470616500       -2.55590651246778
O            6.11461277445537        4.08549892219627       -1.17328260051372
H            5.75279598020173        4.65445018998545       -0.47670094162949
H            7.05188135047637        3.96727078775631       -0.93514847531692
O            4.11714774474408       -4.73615087722732       -2.84591892768814
H            3.19972298848465       -4.51582464636275       -3.07726058415729
H            4.61384448912306       -3.99635881360132       -3.22929303867680
O            3.28254219293949        1.79594911050547        4.69184895287430
H            3.90214557433842        1.06123757982940        4.51790761244802
H            3.80375449023475        2.58201867002267        4.48799150036361
O           -1.12413403649794       -4.78666700724753        1.12874149163099
H           -0.18260779403927       -4.95266702622557        0.95345402377059
H           -1.59927235834937       -5.08928456133394        0.33967737480778
O           -8.57145048839166        2.10129341914433       -2.34445908907233
H           -8.37437035284434        3.04717485857912       -2.33460732764719
H           -8.88484791691935        1.94499070331846       -1.43752613191029
O            8.78030619112292        0.39538916269699       -0.85127104238708
H            8.77287477255799       -0.57980690194273       -0.98172780186974
H            7.86972232424344        0.57806463238538       -0.55544008399187
O           -4.69681622879222       -2.97244855799096       -1.69427459157542
H           -5.53127029831858       -3.37559639625966       -1.40463732754977
H           -4.37686905396931       -2.48390759758136       -0.90951395023193
O           10.12317966005429        1.62685769012093        1.34390931419432
H           10.34677419451418        1.00953884831610        2.07466293988690
H            9.62500109026646        1.06420871765675        0.72936909819026
O           -3.57260519848947        3.70602171656135       -2.35300419534329
H           -2.63032121560046        3.89085156933876       -2.22422223607819
H           -3.60600060883145        3.03720249347639       -3.05957588468211
O           -3.25605750894270       -3.01434783389086        5.13165162292391
H           -2.57557879331452       -2.32211700358552        5.09979267118837
H           -4.07928356932283       -2.53423809179102        4.96774538253138
O           -5.05450930080744       -5.12046635144288        0.39638798774963
H           -5.86567120046828       -4.84723641063217       -0.05272231878515
H           -4.94159405904969       -4.48993346067366        1.12326700900879
O           -0.14463782065255        2.05726162234782        0.32409001947264
H           -0.41620630204126        2.72094969495255        0.98138861889813
H           -0.91184481396653        1.46075215026709        0.25068776526090
O            1.57213436876687        4.96526383072843       -1.17502330098879
H            2.35295593366393        4.87372822582954       -1.73732852099929
H            1.87106904150774        4.79341576018312       -0.26693712615987
O           -0.20838123631024       -0.01021234223028       -1.95802081236507
H           -0.35188543959251        0.76739412997176       -2.52588982032945
H           -0.92631573254519       -0.00529409779190       -1.29480488295749
O            3.71175298861228        3.96649194429224       -2.78381887370188
H            4.06276270781790        3.61210644124946       -3.60812729903548
H            4.46551437801370        3.97324999461958       -2.17681213534068
O           -5.55674316766666       -1.44514023146388       -3.83656670027491
H           -5.20226933336830       -1.85516552841478       -3.02601537813511
H           -4.78228192922906       -1.37080833987697       -4.42671356813746
O            1.84760608483374       -3.72525717377363        3.34237459223322
H            1.79113634998339       -4.13523630888288        2.46042206941378
H            0.95739362836132       -3.81922116353821        3.71338103375297
O           -0.90292647506528       -1.90588048325115       -3.87344662231306
H           -0.77389381723875       -1.32171018921561       -3.10311932529216
H           -1.14757442658604       -2.75694781352193       -3.48014261527812
O           -6.11281501344454        1.18575629534279       -3.30596358343471
H           -5.99646137884839        0.22051011740402       -3.40786366689145
H           -7.05612335589481        1.33974371885455       -3.13792931823301
O           -7.54891682019765        4.14045026470672       -0.74709088472631
H           -7.01773146558078        4.92669122576597       -0.57450695204053
H           -6.90634263925009        3.41046899631255       -0.69739485786599
O            8.72065736359290        3.29336897811716       -0.50189091366521
H            9.31463552679601        3.31041862243113        0.25739231949831
H            8.79362614598760        2.39235787777154       -0.83946779000519
O            6.04496663569361        2.57208822447995       -3.62755256369270
H            6.36888421158754        3.29488136625510       -3.07609615108789
H            5.50852536699676        2.02854609462007       -3.01425052378717
O           -9.39507899432374       -0.18325218666261       -0.24469162375136
H          -10.24411349642189       -0.09498526198338        0.24268544760749
H           -8.83112699416914        0.51333390141000        0.13167657677111
O            8.00166576133175        0.55512960933299       -3.61047182743939
H            7.42335342297215        1.32033967628680       -3.77045064694265
H            8.54853282675879        0.78267721223517       -2.84699016867282
O            1.81352638251242        1.41646260846212       -4.72079914667465
H            1.81969874967247        1.36840068464746       -3.75221556151593
H            0.94838692016718        1.81144616821422       -4.89845973630681
O           10.32216583763453       -0.47209790896472        3.03346586534614
H           10.43724172774364       -1.17660300627854        2.37651808161098
H            9.39540996205137       -0.53560198563803        3.31012748255092
O            5.02438772945995       -2.20460765880477       -3.65388697281599
H            5.39016975587478       -1.79359133106258       -2.84944572636617
H            4.75100098369075       -1.45208908085829       -4.20103922924379
O           -7.90297823548884        3.11761302428084        3.55241633442512
H           -7.27343820449845        2.55698760430171        4.02941249925959
H           -7.35415803011897        3.54241717642379        2.87811271456556
O           -9.80019266185333        1.36216531385249        2.61153598475978
H           -9.29892432822980        2.10307705032432        3.00574658168747
H           -9.25479087985322        0.59241380367704        2.81557467604401
O           -5.78720251235320        1.28545445621039        4.05322176342891
H           -6.16085158437811        0.40296620242731        4.15278011303026
H           -5.52798469119088        1.33947372164914        3.11869471632846
O           -3.19709114382051       -1.13283525446721       -5.22203781547797
H           -2.37637201789361       -1.41265219424076       -4.77371132939773
H           -3.19898038735173       -0.16901983644554       -5.14095768111682
O           -8.01892487286728       -1.75755828208606       -2.66869155110003
H           -7.37968690724573       -1.67739284932381       -3.39183374801119
H           -8.82533108756456       -1.28921588994485       -2.94576140905336
O           -3.09222342078403        1.26482893101827        5.03051414081385
H           -4.05501703289743        1.21784684104649        4.91657224609282
H           -2.74947118587657        0.42429537475201        4.70808240785307
O            7.87757038421619       -2.31762954877191       -3.92941542144853
H            6.92344101099426       -2.47277383208487       -4.00606174937200
H            8.00618607893613       -1.39304780965150       -4.17660175096445
O            4.45285877894339        0.36468923195169       -4.74677252148527
H            5.07665672551641        1.09082760913815       -4.84127011722447
H            3.57984235038842        0.72829989900065       -4.95098183769746
O            1.44249775728042       -1.35544213519547       -5.29227170525934
H            1.55937371070129       -0.39590351483145       -5.36839500484449
H            0.51712161556724       -1.47838494430875       -5.02649792759137
O          -10.21789896934162       -0.04591458730889       -2.88248320172388
H           -9.75346517005317        0.75830497842930       -3.15366971679618
H           -9.98397227827205       -0.12658422169058       -1.93895576150469
O           10.50684735473159       -2.27394932823310        0.84262451038083
H            9.91539873121138       -2.38800224922201        0.08136285129962
H           11.20314451512305       -1.69033864607776        0.49900320519061
O            7.01830767864111       -4.11983332062232        0.18698515601143
H            7.66829767663480       -4.78207857045736       -0.05533329022287
H            7.35405618008941       -3.74105352595170        1.02821752482466
O            8.32219099017287       -3.19235676871971        2.42766244270492
H            7.96233862070017       -2.33083027241197        2.66491086622278
H            9.19642625281030       -3.00784897109180        2.05464147975508
O           11.67330731134695       -0.03339992543789       -0.37547801082934
H           10.87934081518000        0.12590342378855       -0.89649882664996
H           11.68080990010973        0.67241145391292        0.28246396880144
O           -3.20883830079632       -3.85568374204664       -3.88521697780897
H           -3.45102092952651       -3.27025311593122       -4.61032684618622
H           -3.67262555384580       -3.50595853511203       -3.10578098052563
O           -9.80566143021176        2.68215000066408        0.08485562630197
H           -9.12899852635730        3.37591507667816        0.04986926816890
H           -9.70604282501292        2.26677283937918        0.95783495595551
O           -4.94761387182963        5.19629775046960       -0.36067794782320
H           -4.15595033776414        5.60582591669624        0.01919919751574
H           -4.66274293216075        4.91946449395800       -1.24190260777712
O            3.26781398373816       -2.16694512593145        5.17199674467852
H            2.56793967864317       -1.53200943097425        5.39011448405529
H            2.81672286286812       -2.85559270201665        4.66087618137031
O           -7.29776062851443       -3.95114432415538       -1.08628295968251
H           -7.59210206322959       -3.38620925929165       -1.81847397529979
H           -7.89512487899201       -3.70602725264804       -0.36330920452513
O           -0.72883064370335       -4.79621433947939       -3.07845722224625
H           -1.02871980463984       -4.74975321206660       -2.16430034306028
H           -1.54055353212397       -4.71227304756411       -3.60227832565758
O           -2.22462768763565        5.47202516305405        0.16185777197570
H           -1.65750031785087        5.29168956014483        0.92121183634866
H           -1.70523753957636        5.19918271287041       -0.60762604506288
O          -11.77332629588612        0.10293430883832        1.05467536196560
H          -12.09063004288956        0.67233178573091        0.32658830255072
H          -11.41778118764078        0.69920581973893        1.72967897805661
O          -12.02295770996741        1.55420454323051       -1.26091635668815
H          -11.66425648232908        1.03074011504483       -1.99067169163372
H          -11.30874743675308        2.14931079301435       -0.98764055250958
O          -11.51552326958524       -2.58627303006799        0.36578987664097
H          -11.78920698587580       -1.77265584907074        0.81845039156341
H          -11.56484989569225       -2.37551060612309       -0.56885575444480
O           -0.87879446220795       -4.04655642205757        3.89509166766969
H           -1.60231701129687       -4.19550831966796        4.51457689899621
H           -1.07044802814332       -4.56014513209849        3.10026384366437
